
                                 *****************
                                 * O   R   C   A *
                                 *****************

                                            #,                                       
                                            ###                                      
                                            ####                                     
                                            #####                                    
                                            ######                                   
                                           ########,                                 
                                     ,,################,,,,,                         
                               ,,#################################,,                 
                          ,,##########################################,,             
                       ,#########################################, ''#####,          
                    ,#############################################,,   '####,        
                  ,##################################################,,,,####,       
                ,###########''''           ''''###############################       
              ,#####''   ,,,,##########,,,,          '''####'''          '####       
            ,##' ,,,,###########################,,,                        '##       
           ' ,,###''''                  '''############,,,                           
         ,,##''                                '''############,,,,        ,,,,,,###''
      ,#''                                            '''#######################'''  
     '                                                          ''''####''''         
             ,#######,   #######,   ,#######,      ##                                
            ,#'     '#,  ##    ##  ,#'     '#,    #''#        ,####,   ,####,        
            ##       ##  ##   ,#'  ##            #'  '#       #'       #'  '#        
            ##       ##  #######   ##           ,######,      #####,   #    #        
            '#,     ,#'  ##    ##  '#,     ,#' ,#      #,     #,   #   #,  ,#        
             '#######'   ##     ##  '#######'  #'      '#     '####' # '####'        



                #########################################################
                #                        -***-                          #
                #          Department of theory and spectroscopy        #
                #                                                       #
                #                      Frank Neese                      #
                #                                                       #
                #     Directorship, Architecture, Infrastructure        #
                #                    SHARK, DRIVERS                     #
                #        Core code/Algorithms in most modules           #
                #                                                       #
                #        Max Planck Institute fuer Kohlenforschung      #
                #                Kaiser Wilhelm Platz 1                 #
                #                 D-45470 Muelheim/Ruhr                 #
                #                      Germany                          #
                #                                                       #
                #                  All rights reserved                  #
                #                        -***-                          #
                #########################################################


                         Program Version 6.0.1  -  RELEASE   -


 With contributions from (in alphabetic order):
[Max-Planck-Institut fuer Kohlenforschung]                               
  Daniel Aravena         : Magnetic Suceptibility                        
  Michael Atanasov       : Ab Initio Ligand Field Theory (pilot matlab implementation)
  Alexander A. Auer      : GIAO ZORA, VPT2 properties, NMR spectrum      
  Ute Becker             : All parallelization in ORCA, NUMFREQ, NUMCALC 
  Giovanni Bistoni       : ED, misc. LED, open-shell LED, HFLD           
  Martin Brehm           : Molecular dynamics                            
  Dmytro Bykov           : pre 5.0 version of the SCF Hessian            
  Marcos Casanova-Páez   : Triplet and SCS-CIS(D). UHF-(DLPNO)-IP/EA/STEOM-CCSD. UHF-CVS-IP/STEOM-CCSD   
  Vijay G. Chilkuri      : MRCI spin determinant printing, contributions to CSF-ICE 
  Pauline Colinet        : FMM embedding                                 
  Dipayan Datta          : RHF DLPNO-CCSD density                        
  Achintya Kumar Dutta   : EOM-CC, STEOM-CC                              
  Nicolas Foglia         : Exact transition moments, OPA infrastructure, MCD improvements    
  Dmitry Ganyushin       : Spin-Orbit,Spin-Spin,Magnetic field MRCI      
  Miquel Garcia-Rates    : C-PCM and meta-GGA Hessian, CCSD/C-PCM, Gaussian charge scheme 
  Tiago L. C. Gouveia    : GS-ROHF, GS-ROCIS                             
  Yang Guo               : DLPNO-NEVPT2, F12-NEVPT2, CIM, IAO-localization        
  Andreas Hansen         : Spin unrestricted coupled pair/coupled cluster methods 
  Ingolf Harden          : AUTO-CI MPn and infrastructure                
  Benjamin Helmich-Paris : MC-RPA, TRAH-(SCF,CASSCF), AVAS, COSX integrals, SCF dyn. polar. 
  Lee Huntington         : MR-EOM, pCC                                   
  Robert Izsak           : Overlap fitted RIJCOSX, COSX-SCS-MP3, EOM     
  Riya Kayal             : Wick's Theorem for AUTO-CI, AUTO-CI UHF-CCSDT 
  Emily Kempfer          : AUTO-CI, RHF CISDT and CCSDT                  
  Christian Kollmar      : KDIIS, OOCD, Brueckner-CCSD(T), CCSD density, CASPT2, CASPT2-K, improved NEVPT2 
  Axel Koslowski         : Symmetry handling                             
  Simone Kossmann        : meta-GGA functionals, TD-DFT gradient, OOMP2, (MP2 Hessian; deprecated post 5.0) 
  Lucas Lang             : DCDCAS                                        
  Marvin Lechner         : AUTO-CI (C++ implementation), FIC-MRCC        
  Spencer Leger          : CASSCF response                               
  Dagmar Lenk            : GEPOL surface, SMD, ORCA-2-JSON               
  Dimitrios Liakos       : Extrapolation schemes; Compound Job, initial MDCI parallelization 
  Dimitrios Manganas     : Further ROCIS development; embedding schemes. LFT, Crystal Embedding 
  Dimitrios Pantazis     : SARC Basis sets                               
  Anastasios Papadopoulos: AUTO-CI, single reference methods and gradients 
  Taras Petrenko         : pre 6.0 DFT Hessian and TD-DFT gradient, (ASA, deprecated), ECA, 1-Electron XAS/XES, NRVS 
  Peter Pinski           : DLPNO-MP2, DLPNO-MP2 Gradient                 
  Christoph Reimann      : Effective Core Potentials                     
  Marius Retegan         : Local ZFS, SOC                                
  Christoph Riplinger    : Optimizer, TS searches, QM/MM, DLPNO-CCSD(T), (RO)-DLPNO pert. Triples 
  Michael Roemelt        : Original ROCIS implementation                 
  Masaaki Saitow         : Open-shell DLPNO-CCSD energy and density      
  Barbara Sandhoefer     : DKH picture change effects                    
  Kantharuban Sivalingam : CASSCF convergence/infrastructure, NEVPT2 and variants, FIC-MRCI 
  Bernardo de Souza      : ESD, SOC TD-DFT                               
  Georgi L. Stoychev     : AutoAux, RI-MP2 NMR, DLPNO-MP2 response, X2C  
  Van Anh Tran           : RI-MP2 g-tensors                              
  Willem Van den Heuvel  : Paramagnetic NMR                              
  Zikuan Wang            : NOTCH, Electric field optimization            
  Frank Wennmohs         : Technical directorship and infrastructure     
  Hang Xu                : AUTO-CI-Response properties                   
                                                                         
[FACCTs GmbH]                                                            
  Markus Bursch, Miquel Garcia-Rates, Christoph Riplinger, Bernardo de Souza, Georgi L. Stoychev 
                                                                 
  APM, Basis sets (HGBS, AHGBS, def-TZVP (Ac-Lr), def2-XVPD (La-Lu)), CI-OPT, improved COSX, DLPNO-Multilevel,           
  DOCKER, DRACO, updates on ESD, GOAT, IRC, LR-CPCM, MBIS, meta-GGA TD-DFT gradient, ML-optimized integration grids, 
  MM, NACMEs, nearIR, NEB, NEB-TS, NL-DFT gradient (VV10), 2- and 3-layer-ONIOM, interface openCOSMO-RS, QMMM,   
  Crystal-QMMM, SF, symmetry and pop. for TD-DFT, r2SCAN hybrids, SOLVATOR                                   
                                                                         
[Other institutions]                                                     
  V. Asgeirsson          : NEB                                           
  Christoph Bannwarth    : sTDA-DFT, sTD-DFT, PBEh-3c, B97-3c, D3        
  Sebastian Ehlert       : rSCAN, r2SCAN, r2SCAN-3c, D4, dhf basis sets  
  Marvin Friede          : D4 for Fr, Ra, Ac-Lr                          
  Lars Goerigk           : TD-DFT with DH, B97 family of functionals     
  Stefan Grimme          : VdW corrections, initial TS optimization, DFT functionals, gCP, sTDA/sTD-DF 
  Waldemar Hujo          : DFT-NL                                        
  H. Jonsson             : NEB                                           
  Holger Kruse           : gCP                                           
  Marcel Mueller         : wB97X-3c, vDZP basis set                      
  Hagen Neugebauer       : wr2SCAN                                       
  Tobias Risthaus        : range-separated hybrid DFT                    
  Lukas Wittmann         : regularized MP2, r2SCAN double-hybrids, wr2SCAN        
                                                                         
We gratefully acknowledge several colleagues who have allowed us to      
interface, adapt or use parts of their codes:                            
  Ed Valeev, F. Pavosevic, A. Kumar             : LibInt (2-el integral package), F12 methods 
  Garnet Chan, S. Sharma, J. Yang, R. Olivares  : DMRG                   
  Ulf Ekstrom                                   : XCFun DFT Library      
  Mihaly Kallay                                 : mrcc  (arbitrary order and MRCC methods)
  Frank Weinhold                                : gennbo (NPA and NBO analysis)           
  Simon Mueller                                 : openCOSMO-RS                            
  Christopher J. Cramer and Donald G. Truhlar   : smd solvation model                     
  S Lehtola, MJT Oliveira, MAL Marques          : LibXC Library                           
  Liviu Ungur et al                             : ANISO software                          


 Your calculation uses the libint2 library for the computation of 2-el integrals
 For citations please refer to: http://libint.valeyev.net

 Your ORCA version has been built with support for libXC version: 6.2.2
 For citations please refer to: https://libxc.gitlab.io

 This ORCA versions uses:
   CBLAS   interface :  Fast vector & matrix operations
   LAPACKE interface :  Fast linear algebra routines
   SCALAPACK package :  Parallel linear algebra routines
   Shared memory     :  Shared parallel matrices
   BLAS/LAPACK       :  OpenBLAS 0.3.27  USE64BITINT DYNAMIC_ARCH NO_AFFINITY SkylakeX SINGLE_THREADED
        Core in use  :  SkylakeX
   Copyright (c) 2011-2014, The OpenBLAS Project


NOTE: MaxCore=2000 MB was set to SCF,MP2,MDCI,CIPSI,MRCI and CIS
      => If you want to overwrite this, your respective input block should be placed after the MaxCore statement
Warning: RI is on but no J-basis has been assigned. Assigning Def2/J (nothing to worry about!)
================================================================================

----- Orbital basis set information -----
Your calculation utilizes the basis: def2-SVP
   F. Weigend and R. Ahlrichs, Phys. Chem. Chem. Phys. 7, 3297 (2005).

----- AuxJ basis set information -----
Your calculation utilizes the auxiliary basis: def2/J
   F. Weigend, Phys. Chem. Chem. Phys. 8, 1057 (2006).

================================================================================
                                        WARNINGS
                       Please study these warnings very carefully!
================================================================================


WARNING: Geometry Optimization
  ===> : Switching off AutoStart
         For restart on a previous wavefunction, please use MOREAD

================================================================================
                                       INPUT FILE
================================================================================
NAME = nh3.inp
|  1> ! B3LYP def2-SVP Opt NumFreq TightSCF
|  2> 
|  3> %maxcore 2000
|  4> 
|  5> %freq
|  6> PROJECTTR false
|  7> end
|  8> * xyz 0 1
|  9>   N  0.0000  0.0000  0.1200
| 10>   H  0.9428  0.0000 -0.2400
| 11>   H -0.4714  0.8165 -0.2400
| 12>   H -0.4714 -0.8165 -0.2400
| 13> *
| 14> %elprop
| 15>  Polar 1
| 16> end
| 17> 
| 18> 
| 19>                          ****END OF INPUT****
================================================================================

                       *****************************
                       * Geometry Optimization Run *
                       *****************************

Geometry optimization settings:
Update method            Update   .... BFGS
Choice of coordinates    CoordSys .... (2022) Redundant Internals
Initial Hessian          InHess   .... Almloef's Model
Max. no of cycles        MaxIter  .... 50

Convergence Tolerances:
Energy Change            TolE     ....  5.0000e-06 Eh
Max. Gradient            TolMAXG  ....  3.0000e-04 Eh/bohr
RMS Gradient             TolRMSG  ....  1.0000e-04 Eh/bohr
Max. Displacement        TolMAXD  ....  4.0000e-03 bohr
RMS Displacement         TolRMSD  ....  2.0000e-03 bohr
Strict Convergence                .... False

------------------------------------------------------------------------------
                        ORCA OPTIMIZATION COORDINATE SETUP
------------------------------------------------------------------------------

The optimization will be done in redundant internal coordinates (2022)
Making redundant internal coordinates   ...  (2022 redundants) done
Evaluating the initial hessian          ...  (Almloef) done
Evaluating the coordinates              ...  done
Calculating the B-matrix                .... done
Calculating the G-matrix                .... done
Diagonalizing the G-matrix              .... done
The first mode is                       ....    1
The number of degrees of freedom        ....    6

    -----------------------------------------------------------------
                    Redundant Internal Coordinates


    -----------------------------------------------------------------
         Definition                    Initial Value    Approx d2E/dq
    -----------------------------------------------------------------
      1. B(H   1,N   0)                  1.0092         0.433992   
      2. B(H   2,N   0)                  1.0092         0.433977   
      3. B(H   3,N   0)                  1.0092         0.433977   
      4. A(H   1,N   0,H   3)          108.0064         0.303543   
      5. A(H   2,N   0,H   3)          108.0073         0.303541   
      6. A(H   1,N   0,H   2)          108.0064         0.303543   
      7. I(H   1,H   3,H   2,N   0)     58.2673         0.004392   
    -----------------------------------------------------------------

Number of atoms                         .... 4
Number of degrees of freedom            .... 7


         *************************************************************
         *                GEOMETRY OPTIMIZATION CYCLE   1            *
         *************************************************************
---------------------------------
CARTESIAN COORDINATES (ANGSTROEM)
---------------------------------
  N      0.000000    0.000000    0.120000
  H      0.942800    0.000000   -0.240000
  H     -0.471400    0.816500   -0.240000
  H     -0.471400   -0.816500   -0.240000

----------------------------
CARTESIAN COORDINATES (A.U.)
----------------------------
  NO LB      ZA    FRAG     MASS         X           Y           Z
   0 N     7.0000    0    14.007    0.000000    0.000000    0.226767
   1 H     1.0000    0     1.008    1.781634    0.000000   -0.453534
   2 H     1.0000    0     1.008   -0.890817    1.542961   -0.453534
   3 H     1.0000    0     1.008   -0.890817   -1.542961   -0.453534

--------------------------------
INTERNAL COORDINATES (ANGSTROEM)
--------------------------------
 N      0   0   0     0.000000000000     0.00000000     0.00000000
 H      1   0   0     1.009193658323     0.00000000     0.00000000
 H      1   2   0     1.009202759608   108.00638695     0.00000000
 H      1   2   3     1.009202759608   108.00638695   116.58035810

---------------------------
INTERNAL COORDINATES (A.U.)
---------------------------
 N      0   0   0     0.000000000000     0.00000000     0.00000000
 H      1   0   0     1.907099630321     0.00000000     0.00000000
 H      1   2   0     1.907116829256   108.00638695     0.00000000
 H      1   2   3     1.907116829256   108.00638695   116.58035810

---------------------
BASIS SET INFORMATION
---------------------
There are 2 groups of distinct atoms

 Group   1 Type N   : 7s4p1d contracted to 3s2p1d pattern {511/31/1}
 Group   2 Type H   : 4s1p contracted to 2s1p pattern {31/1}

Atom   0N    basis set group =>   1
Atom   1H    basis set group =>   2
Atom   2H    basis set group =>   2
Atom   3H    basis set group =>   2
---------------------------------
AUXILIARY/J BASIS SET INFORMATION
---------------------------------
There are 2 groups of distinct atoms

 Group   1 Type N   : 12s5p4d2f1g contracted to 6s4p3d1f1g pattern {711111/2111/211/2/1}
 Group   2 Type H   : 5s2p1d contracted to 3s1p1d pattern {311/2/1}

Atom   0N    basis set group =>   1
Atom   1H    basis set group =>   2
Atom   2H    basis set group =>   2
Atom   3H    basis set group =>   2
------------------------------------------------------------------------------
                             ORCA STARTUP CALCULATIONS
                           -- RI-GTO INTEGRALS CHOSEN --
------------------------------------------------------------------------------
------------------------------------------------------------------------------
                   ___                                                        
                  /   \      - P O W E R E D   B Y -                         
                 /     \                                                     
                 |  |  |   _    _      __       _____    __    __             
                 |  |  |  | |  | |    /  \     |  _  \  |  |  /  |          
                  \  \/   | |  | |   /    \    | | | |  |  | /  /          
                 / \  \   | |__| |  /  /\  \   | |_| |  |  |/  /          
                |  |  |   |  __  | /  /__\  \  |    /   |      \           
                |  |  |   | |  | | |   __   |  |    \   |  |\   \          
                \     /   | |  | | |  |  |  |  | |\  \  |  | \   \       
                 \___/    |_|  |_| |__|  |__|  |_| \__\ |__|  \__/        
                                                                              
                      - O R C A' S   B I G   F R I E N D -                    
                                      &                                       
                       - I N T E G R A L  F E E D E R -                       
                                                                              
 v1 FN, 2020, v2 2021, v3 2022-2024                                           
------------------------------------------------------------------------------


----------------------
SHARK INTEGRAL PACKAGE
----------------------

Number of atoms                             ...      4
Number of basis functions                   ...     29
Number of shells                            ...     15
Maximum angular momentum                    ...      2
Integral batch strategy                     ... SHARK/LIBINT Hybrid
RI-J (if used) integral strategy            ... SPLIT-RIJ (Revised 2003 algorithm where possible)
Printlevel                                  ...      1
Contraction scheme used                     ... SEGMENTED contraction
Prescreening option                         ... SCHWARTZ
   Thresh                                   ... 2.500e-11
   Tcut                                     ... 2.500e-12
   Tpresel                                  ... 2.500e-12 
Coulomb Range Separation                    ... NOT USED
Exchange Range Separation                   ... NOT USED
Multipole approximations                    ... NOT USED
Finite Nucleus Model                        ... NOT USED
CABS basis                                  ... NOT available
Auxiliary Coulomb fitting basis             ... AVAILABLE
   # of basis functions in Aux-J            ...     82
   # of shells in Aux-J                     ...     30
   Maximum angular momentum in Aux-J        ...      4
Auxiliary J/K fitting basis                 ... NOT available
Auxiliary Correlation fitting basis         ... NOT available
Auxiliary 'external' fitting basis          ... NOT available

Checking pre-screening integrals            ... done (  0.0 sec) Dimension = 15
Check shell pair data                       ... done (  0.0 sec)
Shell pair information
Shell pair cut-off parameter TPreSel        ...   2.5e-12
Total number of shell pairs                 ...       120
Shell pairs after pre-screening             ...       120
Total number of primitive shell pairs       ...       400
Primitive shell pairs kept                  ...       388
          la=0 lb=0:     45 shell pairs
          la=1 lb=0:     45 shell pairs
          la=1 lb=1:     15 shell pairs
          la=2 lb=0:      9 shell pairs
          la=2 lb=1:      5 shell pairs
          la=2 lb=2:      1 shell pairs

Calculating one electron integrals          ... done (  0.0 sec)
Calculating RI/J V-Matrix + Cholesky decomp.... done (  0.0 sec)
Calculating Nuclear repulsion               ... done (  0.0 sec) ENN=     11.983582569414 Eh

Diagonalization of the overlap matrix:
Smallest eigenvalue                        ... 2.952e-02
Time for diagonalization                   ...    0.000 sec
Threshold for overlap eigenvalues          ... 1.000e-07
Number of eigenvalues below threshold      ... 0
Time for construction of square roots      ...    0.000 sec
Total time needed                          ...    0.000 sec

-------------------
DFT GRID GENERATION
-------------------

General Integration Accuracy     IntAcc      ... 4.388
Radial Grid Type                 RadialGrid  ... OptM3 with GC (2021)
Angular Grid (max. ang.)         AngularGrid ... 4 (Lebedev-302)
Angular grid pruning method      GridPruning ... 4 (adaptive)
Weight generation scheme         WeightScheme... mBecke (2022)
Basis function cutoff            BFCut       ... 1.0000e-11
Integration weight cutoff        WCut        ... 1.0000e-14
Partially contracted basis set               ... off
Rotationally invariant grid construction     ... off
Angular grids for H and He will be reduced by one unit

Total number of grid points                  ...    16017
Total number of batches                      ...      252
Average number of points per batch           ...       63
Average number of grid points per atom       ...     4004

--------------------
COSX GRID GENERATION
--------------------

GRIDX 1
-------
General Integration Accuracy     IntAcc      ... 3.816
Radial Grid Type                 RadialGrid  ... OptM3 with GC (2021)
Angular Grid (max. ang.)         AngularGrid ... 1 (Lebedev-50)
Angular grid pruning method      GridPruning ... 4 (adaptive)
Weight generation scheme         WeightScheme... mBecke (2022)
Basis function cutoff            BFCut       ... 1.0000e-11
Integration weight cutoff        WCut        ... 1.0000e-14
Partially contracted basis set               ... on
Rotationally invariant grid construction     ... off
Angular grids for H and He will be reduced by one unit

Total number of grid points                  ...     2099
Total number of batches                      ...       19
Average number of points per batch           ...      110
Average number of grid points per atom       ...      525
UseSFitting                                  ... on

GRIDX 2
-------
General Integration Accuracy     IntAcc      ... 4.020
Radial Grid Type                 RadialGrid  ... OptM3 with GC (2021)
Angular Grid (max. ang.)         AngularGrid ... 2 (Lebedev-110)
Angular grid pruning method      GridPruning ... 4 (adaptive)
Weight generation scheme         WeightScheme... mBecke (2022)
Basis function cutoff            BFCut       ... 1.0000e-11
Integration weight cutoff        WCut        ... 1.0000e-14
Partially contracted basis set               ... on
Rotationally invariant grid construction     ... off
Angular grids for H and He will be reduced by one unit

Total number of grid points                  ...     4304
Total number of batches                      ...       36
Average number of points per batch           ...      119
Average number of grid points per atom       ...     1076
UseSFitting                                  ... on

GRIDX 3
-------
General Integration Accuracy     IntAcc      ... 4.338
Radial Grid Type                 RadialGrid  ... OptM3 with GC (2021)
Angular Grid (max. ang.)         AngularGrid ... 3 (Lebedev-194)
Angular grid pruning method      GridPruning ... 4 (adaptive)
Weight generation scheme         WeightScheme... mBecke (2022)
Basis function cutoff            BFCut       ... 1.0000e-11
Integration weight cutoff        WCut        ... 1.0000e-14
Partially contracted basis set               ... on
Rotationally invariant grid construction     ... off
Angular grids for H and He will be reduced by one unit

Total number of grid points                  ...     9479
Total number of batches                      ...       77
Average number of points per batch           ...      123
Average number of grid points per atom       ...     2370
UseSFitting                                  ... on
Initializing property integral containers    ... done (  0.0 sec)

SHARK setup successfully completed in   0.1 seconds

Maximum memory used throughout the entire STARTUP-calculation: 8.7 MB
-------------------------------------------------------------------------------
                                 ORCA GUESS
                   Start orbitals & Density for SCF / CASSCF
-------------------------------------------------------------------------------

------------
SCF SETTINGS
------------
Hamiltonian:
 Density Functional     Method          .... DFT(GTOs)
 Exchange Functional    Exchange        .... B88
   X-Alpha parameter    XAlpha          ....  0.666667
   Becke's b parameter  XBeta           ....  0.004200
 Correlation Functional Correlation     .... LYP
 LDA part of GGA corr.  LDAOpt          .... VWN-5
 Gradients option       PostSCFGGA      .... off
 Hybrid DFT is turned on
   Fraction HF Exchange ScalHFX         ....  0.200000
   Scaling of DF-GGA-X  ScalDFX         ....  0.720000
   Scaling of DF-GGA-C  ScalDFC         ....  0.810000
   Scaling of DF-LDA-C  ScalLDAC        ....  1.000000
   Perturbative correction              ....  0.000000
   NL short-range parameter             ....  4.800000
 RI-approximation to the Coulomb term is turned on
   Number of AuxJ basis functions       .... 82
   RIJ-COSX (HFX calculated with COS-X)).... on


General Settings:
 Integral files         IntName         .... nh3
 Hartree-Fock type      HFTyp           .... RHF
 Total Charge           Charge          ....    0
 Multiplicity           Mult            ....    1
 Number of Electrons    NEL             ....   10
 Basis Dimension        Dim             ....   29
 Nuclear Repulsion      ENuc            ....     11.9835825694 Eh

Convergence Acceleration:
 AO-DIIS                CNVDIIS         .... on
   Start iteration      DIISMaxIt       ....    12
   Startup error        DIISStart       ....  0.200000
   # of expansion vecs  DIISMaxEq       ....     5
   Bias factor          DIISBfac        ....   1.050
   Max. coefficient     DIISMaxC        ....  10.000
 MO-DIIS                CNVKDIIS        .... off
 Trust-Rad. Augm. Hess. CNVTRAH         .... auto
   Auto Start mean grad. ratio tolernc. ....  1.125000
   Auto Start start iteration           ....    50
   Auto Start num. interpolation iter.  ....    10
   Max. Number of Micro iterations      ....    24
   Max. Number of Macro iterations      .... Maxiter - #DIIS iter
   Number of Davidson start vectors     ....     2
   Converg. threshold    (grad. norm)   ....   1.000e-05
   Grad. Scal. Fac. for Micro threshold ....   0.100
   Minimum threshold for Micro iter.    ....   1.000e-02
   NR start threshold (gradient norm)   ....   1.000e-04
   Initial trust radius                 ....   0.400
   Minimum AH scaling param. (alpha)    ....   1.000
   Maximum AH scaling param. (alpha)    .... 1000.000
   Quad. conv. algorithm                .... NR
   White noise on init. David. guess    .... on
   Maximum white noise                  ....   0.010
   Pseudo random numbers                .... off
   Inactive MOs                         .... canonical
   Orbital update algorithm             .... Taylor
   Preconditioner                       .... Diag
   Full preconditioner red. dimension   ....   250
 SOSCF                  CNVSOSCF        .... on
   Start iteration      SOSCFMaxIt      ....   150
   Startup grad/error   SOSCFStart      ....  0.003300
   Hessian update       SOSCFHessUp     .... L-BFGS
 Level Shifting         CNVShift        .... on
   Level shift para.    LevelShift      ....    0.2500
   Turn off err/grad.   ShiftErr        ....    0.0010
 Zerner damping         CNVZerner       .... off
 Static damping         CNVDamp         .... on
   Fraction old density DampFac         ....    0.7000
   Max. Damping (<1)    DampMax         ....    0.9800
   Min. Damping (>=0)   DampMin         ....    0.0000
   Turn off err/grad.   DampErr         ....    0.1000

SCF Procedure:
 Maximum # iterations   MaxIter         ....   125
 SCF integral mode      SCFMode         .... Direct
   Integral package                     .... SHARK and LIBINT hybrid scheme
 Reset frequency        DirectResetFreq ....    20
 Integral Threshold     Thresh          ....  2.500e-11 Eh
 Primitive CutOff       TCut            ....  2.500e-12 Eh

Convergence Tolerance:
 Convergence Check Mode ConvCheckMode   .... Total+1el-Energy
 Convergence forced     ConvForced      .... 0
 Energy Change          TolE            ....  1.000e-08 Eh
 1-El. energy change                    ....  1.000e-05 Eh
 Orbital Gradient       TolG            ....  1.000e-05
 Orbital Rotation angle TolX            ....  1.000e-05
 DIIS Error             TolErr          ....  5.000e-07

------------------------------
INITIAL GUESS: MODEL POTENTIAL
------------------------------
Loading Hartree-Fock densities                     ... done
Calculating cut-offs                               ... done
Initializing the effective Hamiltonian             ... done
Setting up the integral package (SHARK)            ... done
Starting the Coulomb interaction                   ... done (   0.0 sec)
Making the grid                                    ... done (   0.0 sec)
Mapping shells                                     ... done
Starting the XC term evaluation                    ... done (   0.0 sec)
  promolecular density results
     # of electrons  =      9.997966509
     EX              =     -7.451461818
     EC              =     -0.311711864
     EX+EC           =     -7.763173682
Transforming the Hamiltonian                       ... done (   0.0 sec)
Diagonalizing the Hamiltonian                      ... done (   0.0 sec)
Back transforming the eigenvectors                 ... done (   0.0 sec)
Now organizing SCF variables                       ... done
                      ------------------
                      INITIAL GUESS DONE (   0.0 sec)
                      ------------------
             **** ENERGY FILE WAS UPDATED (nh3.en.tmp) ****
Finished Guess after   0.0 sec
Maximum memory used throughout the entire GUESS-calculation: 5.5 MB

-------------------------------------------------------------------------------------------
                                      ORCA LEAN-SCF
                              memory conserving SCF solver
-------------------------------------------------------------------------------------------

----------------------------------------D-I-I-S--------------------------------------------
Iteration    Energy (Eh)           Delta-E    RMSDP     MaxDP     DIISErr   Damp  Time(sec)
-------------------------------------------------------------------------------------------
               ***  Starting incremental Fock matrix formation  ***
    1    -56.3547313440807329     0.00e+00  1.18e-02  1.05e-01  3.08e-01  0.700   0.1
    2    -56.4126347996338211    -5.79e-02  7.44e-03  6.24e-02  1.38e-01  0.700   0.1
                               ***Turning on AO-DIIS***
    3    -56.4330036408196065    -2.04e-02  2.22e-03  1.58e-02  3.91e-02  0.700   0.1
    4    -56.4450996815098875    -1.21e-02  2.84e-03  1.89e-02  1.55e-02  0.000   0.1
    5    -56.4723294556754780    -2.72e-02  7.44e-04  4.78e-03  1.01e-02  0.000   0.1
                              *** Initializing SOSCF ***
---------------------------------------S-O-S-C-F--------------------------------------
Iteration    Energy (Eh)           Delta-E    RMSDP     MaxDP     MaxGrad    Time(sec)
--------------------------------------------------------------------------------------
    6    -56.4724633562252762    -1.34e-04  2.39e-04  1.44e-03  2.15e-03     0.1
               *** Restarting incremental Fock matrix formation ***
    7    -56.4724588963087655     4.46e-06  1.59e-04  1.26e-03  2.83e-04     0.1
    8    -56.4724590145762875    -1.18e-07  4.57e-05  4.56e-04  3.64e-04     0.1
    9    -56.4724595413956507    -5.27e-07  8.22e-06  4.83e-05  2.08e-05     0.1
   10    -56.4724595450186655    -3.62e-09  8.88e-07  4.94e-06  2.26e-06     0.1
                 **** Energy Check signals convergence ****

               *****************************************************
               *                     SUCCESS                       *
               *           SCF CONVERGED AFTER  10 CYCLES          *
               *****************************************************

Recomputing exchange energy using gridx3       ... done (    0.089 sec)
Old exchange energy                            :     -1.535742288 Eh
New exchange energy                            :     -1.535738282 Eh
Exchange energy change after final integration :      0.000004006 Eh
Total energy after final integration           :    -56.472455539 Eh
             **** ENERGY FILE WAS UPDATED (nh3.en.tmp) ****

----------------
TOTAL SCF ENERGY
----------------

Total Energy       :        -56.47245553931383 Eh           -1536.69364 eV

Components:
Nuclear Repulsion  :         11.98358256941432 Eh             326.08986 eV
Electronic Energy  :        -68.45604211443299 Eh           -1862.78361 eV
One Electron Energy:        -99.74419308304930 Eh           -2714.17748 eV
Two Electron Energy:         31.28815096861631 Eh             851.39387 eV

Virial components:
Potential Energy   :       -112.43027978883353 Eh           -3059.38345 eV
Kinetic Energy     :         55.95782424951970 Eh            1522.68981 eV
Virial Ratio       :          2.00919677090194

DFT components:
N(Alpha)           :        4.999999268988 electrons
N(Beta)            :        4.999999268988 electrons
N(Total)           :        9.999998537975 electrons
E(X)               :       -6.093319232906 Eh       
E(C)               :       -0.377191327534 Eh       
E(XC)              :       -6.470510560441 Eh       

---------------
SCF CONVERGENCE
---------------

  Last Energy change         ...    3.6230e-09  Tolerance :   1.0000e-08
  Last MAX-Density change    ...    4.9441e-06  Tolerance :   1.0000e-07
  Last RMS-Density change    ...    8.8805e-07  Tolerance :   5.0000e-09
  Last DIIS Error            ...    2.1466e-03  Tolerance :   5.0000e-07
  Last Orbital Gradient      ...    2.2646e-06  Tolerance :   1.0000e-05
  Last Orbital Rotation      ...    4.9592e-06  Tolerance :   1.0000e-05


----------------
ORBITAL ENERGIES
----------------

  NO   OCC          E(Eh)            E(eV) 
   0   2.0000     -14.290527      -388.8650 
   1   2.0000      -0.828368       -22.5410 
   2   2.0000      -0.451061       -12.2740 
   3   2.0000      -0.451058       -12.2739 
   4   2.0000      -0.242965        -6.6114 
   5   0.0000       0.058978         1.6049 
   6   0.0000       0.144852         3.9416 
   7   0.0000       0.144856         3.9417 
   8   0.0000       0.532898        14.5009 
   9   0.0000       0.532910        14.5012 
  10   0.0000       0.654705        17.8154 
  11   0.0000       0.747626        20.3439 
  12   0.0000       0.843500        22.9528 
  13   0.0000       0.843574        22.9548 
  14   0.0000       0.911666        24.8077 
  15   0.0000       1.218535        33.1580 
*Only the first 10 virtual orbitals were printed.

                    ********************************
                    * MULLIKEN POPULATION ANALYSIS *
                    ********************************

-----------------------
MULLIKEN ATOMIC CHARGES
-----------------------
   0 N :   -0.243107
   1 H :    0.081025
   2 H :    0.081041
   3 H :    0.081041
Sum of atomic charges:   -0.0000000

--------------------------------
MULLIKEN REDUCED ORBITAL CHARGES
--------------------------------
  0 N s       :     3.388043  s :     3.388043
      pz      :     1.736350  p :     3.838485
      px      :     1.051055
      py      :     1.051080
      dz2     :     0.000747  d :     0.016579
      dxz     :     0.004911
      dyz     :     0.004911
      dx2y2   :     0.003005
      dxy     :     0.003006

  1 H s       :     0.872065  s :     0.872065
      pz      :     0.014926  p :     0.046910
      px      :     0.022344
      py      :     0.009640

  2 H s       :     0.872044  s :     0.872044
      pz      :     0.014924  p :     0.046915
      px      :     0.012818
      py      :     0.019172

  3 H s       :     0.872044  s :     0.872044
      pz      :     0.014924  p :     0.046915
      px      :     0.012818
      py      :     0.019172



                     *******************************
                     * LOEWDIN POPULATION ANALYSIS *
                     *******************************

----------------------
LOEWDIN ATOMIC CHARGES
----------------------
   0 N :   -0.148198
   1 H :    0.049389
   2 H :    0.049404
   3 H :    0.049404

-------------------------------
LOEWDIN REDUCED ORBITAL CHARGES
-------------------------------
  0 N s       :     3.123257  s :     3.123257
      pz      :     1.713071  p :     3.989293
      px      :     1.138109
      py      :     1.138113
      dz2     :     0.000601  d :     0.035648
      dxz     :     0.008222
      dyz     :     0.008221
      dx2y2   :     0.009302
      dxy     :     0.009302

  1 H s       :     0.829655  s :     0.829655
      pz      :     0.046991  p :     0.120955
      px      :     0.055491
      py      :     0.018472

  2 H s       :     0.829637  s :     0.829637
      pz      :     0.046992  p :     0.120958
      px      :     0.027728
      py      :     0.046239

  3 H s       :     0.829637  s :     0.829637
      pz      :     0.046992  p :     0.120958
      px      :     0.027728
      py      :     0.046239



                      *****************************
                      * MAYER POPULATION ANALYSIS *
                      *****************************

  NA   - Mulliken gross atomic population
  ZA   - Total nuclear charge
  QA   - Mulliken gross atomic charge
  VA   - Mayer's total valence
  BVA  - Mayer's bonded valence
  FA   - Mayer's free valence

  ATOM       NA         ZA         QA         VA         BVA        FA
  0 N      7.2431     7.0000    -0.2431     2.9979     2.9979    -0.0000
  1 H      0.9190     1.0000     0.0810     1.0000     1.0000    -0.0000
  2 H      0.9190     1.0000     0.0810     1.0000     1.0000    -0.0000
  3 H      0.9190     1.0000     0.0810     1.0000     1.0000    -0.0000

  Mayer bond orders larger than 0.100000
B(  0-N ,  1-H ) :   0.9993 B(  0-N ,  2-H ) :   0.9993 B(  0-N ,  3-H ) :   0.9993 


-------
TIMINGS
-------

Total SCF time: 0 days 0 hours 0 min 0 sec 

Total time                  ....       0.822 sec
Sum of individual times     ....       0.809 sec  ( 98.4%)

SCF preparation             ....       0.056 sec  (  6.8%)
Fock matrix formation       ....       0.748 sec  ( 91.0%)
  Startup                   ....       0.000 sec  (  0.1% of F)
  Split-RI-J                ....       0.024 sec  (  3.2% of F)
  Chain of spheres X        ....       0.483 sec  ( 64.5% of F)
  XC integration            ....       0.239 sec  ( 31.9% of F)
    Basis function eval.    ....       0.096 sec  ( 40.2% of XC)
    Density eval.           ....       0.030 sec  ( 12.4% of XC)
    XC-Functional eval.     ....       0.055 sec  ( 23.1% of XC)
    XC-Potential eval.      ....       0.042 sec  ( 17.7% of XC)
Diagonalization             ....       0.000 sec  (  0.0%)
Density matrix formation    ....       0.001 sec  (  0.1%)
Total Energy calculation    ....       0.000 sec  (  0.0%)
Population analysis         ....       0.001 sec  (  0.1%)
Orbital Transformation      ....       0.000 sec  (  0.1%)
Orbital Orthonormalization  ....       0.000 sec  (  0.0%)
DIIS solution               ....       0.002 sec  (  0.2%)
SOSCF solution              ....       0.001 sec  (  0.1%)
Finished LeanSCF after   0.8 sec

Maximum memory used throughout the entire LEANSCF-calculation: 5.2 MB

-------------------------   --------------------
FINAL SINGLE POINT ENERGY       -56.472455539314
-------------------------   --------------------

------------------------------------------------------------------------------
                         ORCA SCF GRADIENT CALCULATION
------------------------------------------------------------------------------

Nuc. rep. gradient        (SHARK) ... done (  0.0 sec)
HCore & Overlap gradient  (SHARK) ... done (  0.0 sec)
Split-RIJ-J gradient      (SHARK) ... done (  0.1 sec)
COSX-gradient                     ... done (  0.4 sec)
XC gradient                       ... done (  0.1 sec)

------------------
CARTESIAN GRADIENT
------------------

   1   N   :    0.000022787   -0.000000003   -0.015723289
   2   H   :   -0.007530500   -0.000000018    0.005238118
   3   H   :    0.003753846   -0.006504286    0.005242579
   4   H   :    0.003753867    0.006504308    0.005242592

Difference to translation invariance:
           :   -0.0000000000    0.0000000000    0.0000000000

Difference to rotation invariance:
           :   -0.0000000176    0.0000234627   -0.0000000196

Norm of the Cartesian gradient     ...    0.0223412780
RMS gradient                       ...    0.0064493714
MAX gradient                       ...    0.0157232893

-------
TIMINGS
-------

Total SCF gradient time     ....        0.562 sec

Densities                   ....       0.000 sec  (  0.0%)
One electron gradient       ....       0.005 sec  (  0.9%)
RI-J Coulomb gradient       ....       0.073 sec  ( 12.9%)
COSX gradient               ....       0.384 sec  ( 68.4%)
XC gradient                 ....       0.100 sec  ( 17.8%)

Maximum memory used throughout the entire SCFGRAD-calculation: 6.3 MB
------------------------------------------------------------------------------
                         ORCA GEOMETRY RELAXATION STEP
------------------------------------------------------------------------------

Reading the OPT-File                    .... done
Getting information on internals        .... done
Copying old internal coords+grads       .... done
Making the new internal coordinates     .... (2022 redundants) done
Validating the new internal coordinates .... (2022 redundants) done
Calculating the B-matrix                .... done
Calculating the G,G- and P matrices     .... done
Transforming gradient to internals      .... done
Projecting the internal gradient        .... done
Number of atoms                         ....   4
Number of internal coordinates          ....   7
Current Energy                          ....   -56.472455539 Eh
Current gradient norm                   ....     0.022341278 Eh/bohr
Maximum allowed component of the step   ....  0.300
Current trust radius                    ....  0.300
Evaluating the initial hessian          ....  (Almloef) done
Projecting the Hessian                  .... done
Forming the augmented Hessian           .... done
Diagonalizing the augmented Hessian     .... done
Last element of RFO vector              ....  0.998685566
Lowest eigenvalues of augmented Hessian:
 -0.000700220  0.104549860  0.303543036  0.303556227  0.433977164
Length of the computed step             ....  0.051323094
The final length of the internal step   ....  0.051323094
Converting the step to Cartesian space:
 Initial RMS(Int)=    0.0193983062
Transforming coordinates:
 Iter   0:  RMS(Cart)=    0.0090494102 RMS(Int)=    0.0193615164
done
Storing new coordinates                 .... done

                                .--------------------.
          ----------------------|Geometry convergence|-------------------------
          Item                value                   Tolerance       Converged
          ---------------------------------------------------------------------
          RMS gradient        0.0060517775            0.0001000000      NO
          MAX gradient        0.0089058100            0.0003000000      NO
          RMS step            0.0193983062            0.0020000000      NO
          MAX step            0.0297584636            0.0040000000      NO
          ........................................................
          Max(Bonds)      0.0108      Max(Angles)    0.74
          Max(Dihed)        0.00      Max(Improp)    1.71
          ---------------------------------------------------------------------

The optimization has not yet converged - more geometry cycles are needed


    ---------------------------------------------------------------------------
                         Redundant Internal Coordinates
                            (Angstroem and degrees)

        Definition                    Value    dE/dq     Step     New-Value
    ----------------------------------------------------------------------------
     1. B(H   1,N   0)                1.0092 -0.008906  0.0108    1.0200   
     2. B(H   2,N   0)                1.0092 -0.008885  0.0108    1.0200   
     3. B(H   3,N   0)                1.0092 -0.008885  0.0108    1.0200   
     4. A(H   1,N   0,H   3)          108.01  0.001043   -0.73    107.28   
     5. A(H   2,N   0,H   3)          108.01  0.002686   -0.74    107.26   
     6. A(H   1,N   0,H   2)          108.01  0.001043   -0.73    107.28   
     7. I(H   1,H   3,H   2,N   0)     58.27 -0.003128    1.71     59.97   
    ----------------------------------------------------------------------------

Geometry step timings:
Preparation and reading OPT file:      0.000 s (19.458 %)
Internal coordinates            :      0.000 s ( 2.711 %)
B/P matrices and projection     :      0.000 s (13.746 %)
Hessian update/contruction      :      0.000 s (17.812 %)
Making the step                 :      0.000 s (10.552 %)
Converting the step to Cartesian:      0.000 s ( 4.259 %)
Storing new data                :      0.000 s ( 3.679 %)
Checking convergence            :      0.000 s ( 0.097 %)
Final printing                  :      0.000 s (27.202 %)
Total time                      :      0.001 s

Time for energy+gradient        :      1.675 s
Time for complete geometry iter :      1.700 s

         *************************************************************
         *                GEOMETRY OPTIMIZATION CYCLE   2            *
         *************************************************************
---------------------------------
CARTESIAN COORDINATES (ANGSTROEM)
---------------------------------
  N      0.000021   -0.000000    0.131580
  H      0.948451    0.000000   -0.243855
  H     -0.474236    0.821318   -0.243863
  H     -0.474236   -0.821318   -0.243863

----------------------------
CARTESIAN COORDINATES (A.U.)
----------------------------
  NO LB      ZA    FRAG     MASS         X           Y           Z
   0 N     7.0000    0    14.007    0.000039   -0.000000    0.248650
   1 H     1.0000    0     1.008    1.792313    0.000000   -0.460819
   2 H     1.0000    0     1.008   -0.896176    1.552065   -0.460834
   3 H     1.0000    0     1.008   -0.896176   -1.552065   -0.460834

--------------------------------
INTERNAL COORDINATES (ANGSTROEM)
--------------------------------
 N      0   0   0     0.000000000000     0.00000000     0.00000000
 H      1   0   0     1.020035248895     0.00000000     0.00000000
 H      1   2   0     1.020019102401   107.26768416     0.00000000
 H      1   2   3     1.020019138041   107.26769012   114.95977118

---------------------------
INTERNAL COORDINATES (A.U.)
---------------------------
 N      0   0   0     0.000000000000     0.00000000     0.00000000
 H      1   0   0     1.927587267358     0.00000000     0.00000000
 H      1   2   0     1.927556754906   107.26768416     0.00000000
 H      1   2   3     1.927556822255   107.26769012   114.95977118

------------------------------------------------------------------------------
                   ___                                                        
                  /   \      - P O W E R E D   B Y -                         
                 /     \                                                     
                 |  |  |   _    _      __       _____    __    __             
                 |  |  |  | |  | |    /  \     |  _  \  |  |  /  |          
                  \  \/   | |  | |   /    \    | | | |  |  | /  /          
                 / \  \   | |__| |  /  /\  \   | |_| |  |  |/  /          
                |  |  |   |  __  | /  /__\  \  |    /   |      \           
                |  |  |   | |  | | |   __   |  |    \   |  |\   \          
                \     /   | |  | | |  |  |  |  | |\  \  |  | \   \       
                 \___/    |_|  |_| |__|  |__|  |_| \__\ |__|  \__/        
                                                                              
                      - O R C A' S   B I G   F R I E N D -                    
                                      &                                       
                       - I N T E G R A L  F E E D E R -                       
                                                                              
 v1 FN, 2020, v2 2021, v3 2022-2024                                           
------------------------------------------------------------------------------


----------------------
SHARK INTEGRAL PACKAGE
----------------------

Number of atoms                             ...      4
Number of basis functions                   ...     29
Number of shells                            ...     15
Maximum angular momentum                    ...      2
Integral batch strategy                     ... SHARK/LIBINT Hybrid
RI-J (if used) integral strategy            ... SPLIT-RIJ (Revised 2003 algorithm where possible)
Printlevel                                  ...      1
Contraction scheme used                     ... SEGMENTED contraction
Prescreening option                         ... SCHWARTZ
   Thresh                                   ... 2.500e-11
   Tcut                                     ... 2.500e-12
   Tpresel                                  ... 2.500e-12 
Coulomb Range Separation                    ... NOT USED
Exchange Range Separation                   ... NOT USED
Multipole approximations                    ... NOT USED
Finite Nucleus Model                        ... NOT USED
CABS basis                                  ... NOT available
Auxiliary Coulomb fitting basis             ... AVAILABLE
   # of basis functions in Aux-J            ...     82
   # of shells in Aux-J                     ...     30
   Maximum angular momentum in Aux-J        ...      4
Auxiliary J/K fitting basis                 ... NOT available
Auxiliary Correlation fitting basis         ... NOT available
Auxiliary 'external' fitting basis          ... NOT available

Checking pre-screening integrals            ... done (  0.0 sec) Dimension = 15
Check shell pair data                       ... done (  0.0 sec)
Shell pair information
Shell pair cut-off parameter TPreSel        ...   2.5e-12
Total number of shell pairs                 ...       120
Shell pairs after pre-screening             ...       120
Total number of primitive shell pairs       ...       400
Primitive shell pairs kept                  ...       388
          la=0 lb=0:     45 shell pairs
          la=1 lb=0:     45 shell pairs
          la=1 lb=1:     15 shell pairs
          la=2 lb=0:      9 shell pairs
          la=2 lb=1:      5 shell pairs
          la=2 lb=2:      1 shell pairs

Calculating one electron integrals          ... done (  0.0 sec)
Calculating RI/J V-Matrix + Cholesky decomp.... done (  0.0 sec)
Calculating Nuclear repulsion               ... done (  0.0 sec) ENN=     11.860975545164 Eh

Diagonalization of the overlap matrix:
Smallest eigenvalue                        ... 2.968e-02
Time for diagonalization                   ...    0.000 sec
Threshold for overlap eigenvalues          ... 1.000e-07
Number of eigenvalues below threshold      ... 0
Time for construction of square roots      ...    0.000 sec
Total time needed                          ...    0.000 sec

-------------------
DFT GRID GENERATION
-------------------

General Integration Accuracy     IntAcc      ... 4.388
Radial Grid Type                 RadialGrid  ... OptM3 with GC (2021)
Angular Grid (max. ang.)         AngularGrid ... 4 (Lebedev-302)
Angular grid pruning method      GridPruning ... 4 (adaptive)
Weight generation scheme         WeightScheme... mBecke (2022)
Basis function cutoff            BFCut       ... 1.0000e-11
Integration weight cutoff        WCut        ... 1.0000e-14
Partially contracted basis set               ... off
Rotationally invariant grid construction     ... off
Angular grids for H and He will be reduced by one unit

Total number of grid points                  ...    16020
Total number of batches                      ...      253
Average number of points per batch           ...       63
Average number of grid points per atom       ...     4005

--------------------
COSX GRID GENERATION
--------------------

GRIDX 1
-------
General Integration Accuracy     IntAcc      ... 3.816
Radial Grid Type                 RadialGrid  ... OptM3 with GC (2021)
Angular Grid (max. ang.)         AngularGrid ... 1 (Lebedev-50)
Angular grid pruning method      GridPruning ... 4 (adaptive)
Weight generation scheme         WeightScheme... mBecke (2022)
Basis function cutoff            BFCut       ... 1.0000e-11
Integration weight cutoff        WCut        ... 1.0000e-14
Partially contracted basis set               ... on
Rotationally invariant grid construction     ... off
Angular grids for H and He will be reduced by one unit

Total number of grid points                  ...     2101
Total number of batches                      ...       20
Average number of points per batch           ...      105
Average number of grid points per atom       ...      525
UseSFitting                                  ... on

GRIDX 2
-------
General Integration Accuracy     IntAcc      ... 4.020
Radial Grid Type                 RadialGrid  ... OptM3 with GC (2021)
Angular Grid (max. ang.)         AngularGrid ... 2 (Lebedev-110)
Angular grid pruning method      GridPruning ... 4 (adaptive)
Weight generation scheme         WeightScheme... mBecke (2022)
Basis function cutoff            BFCut       ... 1.0000e-11
Integration weight cutoff        WCut        ... 1.0000e-14
Partially contracted basis set               ... on
Rotationally invariant grid construction     ... off
Angular grids for H and He will be reduced by one unit

Total number of grid points                  ...     4304
Total number of batches                      ...       36
Average number of points per batch           ...      119
Average number of grid points per atom       ...     1076
UseSFitting                                  ... on

GRIDX 3
-------
General Integration Accuracy     IntAcc      ... 4.338
Radial Grid Type                 RadialGrid  ... OptM3 with GC (2021)
Angular Grid (max. ang.)         AngularGrid ... 3 (Lebedev-194)
Angular grid pruning method      GridPruning ... 4 (adaptive)
Weight generation scheme         WeightScheme... mBecke (2022)
Basis function cutoff            BFCut       ... 1.0000e-11
Integration weight cutoff        WCut        ... 1.0000e-14
Partially contracted basis set               ... on
Rotationally invariant grid construction     ... off
Angular grids for H and He will be reduced by one unit

Total number of grid points                  ...     9476
Total number of batches                      ...       76
Average number of points per batch           ...      124
Average number of grid points per atom       ...     2369
UseSFitting                                  ... on
Initializing property integral containers    ... done (  0.0 sec)

SHARK setup successfully completed in   0.1 seconds

Maximum memory used throughout the entire STARTUP-calculation: 8.7 MB
Occupation numbers will be reassigned to an Aufbau configuration
             **** ENERGY FILE WAS UPDATED (nh3.en.tmp) ****
Finished Guess after   0.0 sec
Maximum memory used throughout the entire GUESS-calculation: 5.5 MB
----------------------------------------D-I-I-S--------------------------------------------
Iteration    Energy (Eh)           Delta-E    RMSDP     MaxDP     DIISErr   Damp  Time(sec)
-------------------------------------------------------------------------------------------
               ***  Starting incremental Fock matrix formation  ***
    1    -56.4727651297646034     0.00e+00  3.60e-04  3.34e-03  5.49e-03  0.700   0.1
    2    -56.4728011141239890    -3.60e-05  3.29e-04  3.05e-03  3.41e-03  0.700   0.1
                               ***Turning on AO-DIIS***
                              *** Initializing SOSCF ***
---------------------------------------S-O-S-C-F--------------------------------------
Iteration    Energy (Eh)           Delta-E    RMSDP     MaxDP     MaxGrad    Time(sec)
--------------------------------------------------------------------------------------
    3    -56.4728265988647919    -2.55e-05  8.46e-04  7.39e-03  2.16e-03     0.1
               *** Restarting incremental Fock matrix formation ***
    4    -56.4728880719757242    -6.15e-05  1.87e-04  1.90e-03  2.97e-04     0.1
    5    -56.4728884193543834    -3.47e-07  5.89e-05  5.34e-04  4.11e-04     0.1
    6    -56.4728890766565357    -6.57e-07  1.08e-05  8.29e-05  3.51e-05     0.1
    7    -56.4728890852523975    -8.60e-09  1.13e-06  6.17e-06  7.80e-06     0.1
                 **** Energy Check signals convergence ****

               *****************************************************
               *                     SUCCESS                       *
               *           SCF CONVERGED AFTER   7 CYCLES          *
               *****************************************************

Recomputing exchange energy using gridx3       ... done (    0.087 sec)
Old exchange energy                            :     -1.532842925 Eh
New exchange energy                            :     -1.532837112 Eh
Exchange energy change after final integration :      0.000005813 Eh
Total energy after final integration           :    -56.472883272 Eh
             **** ENERGY FILE WAS UPDATED (nh3.en.tmp) ****

----------------
TOTAL SCF ENERGY
----------------

Total Energy       :        -56.47288327208299 Eh           -1536.70528 eV

Components:
Nuclear Repulsion  :         11.86097554516373 Eh             322.75355 eV
Electronic Energy  :        -68.33386463041613 Eh           -1859.45899 eV
One Electron Energy:        -99.51646372677024 Eh           -2707.98065 eV
Two Electron Energy:         31.18259909635411 Eh             848.52166 eV

Virial components:
Potential Energy   :       -112.39036687562859 Eh           -3058.29736 eV
Kinetic Energy     :         55.91748360354561 Eh            1521.59209 eV
Virial Ratio       :          2.00993248681352

DFT components:
N(Alpha)           :        4.999999342183 electrons
N(Beta)            :        4.999999342183 electrons
N(Total)           :        9.999998684367 electrons
E(X)               :       -6.083288047160 Eh       
E(C)               :       -0.376600739002 Eh       
E(XC)              :       -6.459888786162 Eh       

---------------
SCF CONVERGENCE
---------------

  Last Energy change         ...    8.5959e-09  Tolerance :   1.0000e-08
  Last MAX-Density change    ...    6.1682e-06  Tolerance :   1.0000e-07
  Last RMS-Density change    ...    1.1264e-06  Tolerance :   5.0000e-09
  Last DIIS Error            ...    2.1623e-03  Tolerance :   5.0000e-07
  Last Orbital Gradient      ...    7.7982e-06  Tolerance :   1.0000e-05
  Last Orbital Rotation      ...    4.0853e-06  Tolerance :   1.0000e-05


Total SCF time: 0 days 0 hours 0 min 0 sec 
Finished LeanSCF after   0.6 sec

Maximum memory used throughout the entire LEANSCF-calculation: 5.4 MB

-------------------------   --------------------
FINAL SINGLE POINT ENERGY       -56.472883272083
-------------------------   --------------------

------------------------------------------------------------------------------
                         ORCA SCF GRADIENT CALCULATION
------------------------------------------------------------------------------

Nuc. rep. gradient        (SHARK) ... done (  0.0 sec)
HCore & Overlap gradient  (SHARK) ... done (  0.0 sec)
Split-RIJ-J gradient      (SHARK) ... done (  0.1 sec)
COSX-gradient                     ... done (  0.4 sec)
XC gradient                       ... done (  0.1 sec)

------------------
CARTESIAN GRADIENT
------------------

   1   N   :    0.000015049    0.000000035   -0.006145587
   2   H   :    0.000616040   -0.000000002    0.002044120
   3   H   :   -0.000315531    0.000521036    0.002050739
   4   H   :   -0.000315558   -0.000521069    0.002050728

Difference to translation invariance:
           :    0.0000000000    0.0000000000    0.0000000000

Difference to rotation invariance:
           :   -0.0000000066    0.0000228577   -0.0000000176

Norm of the Cartesian gradient     ...    0.0071749249
RMS gradient                       ...    0.0020712224
MAX gradient                       ...    0.0061455873

-------
TIMINGS
-------

Total SCF gradient time     ....        0.548 sec

Densities                   ....       0.000 sec  (  0.0%)
One electron gradient       ....       0.004 sec  (  0.7%)
RI-J Coulomb gradient       ....       0.060 sec  ( 11.0%)
COSX gradient               ....       0.383 sec  ( 70.0%)
XC gradient                 ....       0.100 sec  ( 18.3%)

Maximum memory used throughout the entire SCFGRAD-calculation: 6.3 MB
------------------------------------------------------------------------------
                         ORCA GEOMETRY RELAXATION STEP
------------------------------------------------------------------------------

Reading the OPT-File                    .... done
Getting information on internals        .... done
Copying old internal coords+grads       .... done
Making the new internal coordinates     .... (2022 redundants) done
Validating the new internal coordinates .... (2022 redundants) done
Calculating the B-matrix                .... done
Calculating the G,G- and P matrices     .... done
Transforming gradient to internals      .... done
Projecting the internal gradient        .... done
Number of atoms                         ....   4
Number of internal coordinates          ....   7
Current Energy                          ....   -56.472883272 Eh
Current gradient norm                   ....     0.007174925 Eh/bohr
Maximum allowed component of the step   ....  0.300
Current trust radius                    ....  0.300
Updating the Hessian (BFGS)             .... done
Forming the augmented Hessian           .... done
Diagonalizing the augmented Hessian     .... done
Last element of RFO vector              ....  0.998358010
Lowest eigenvalues of augmented Hessian:
 -0.000231045  0.067792566  0.291464696  0.303543036  0.433977164
Length of the computed step             ....  0.057376702
The final length of the internal step   ....  0.057376702
Converting the step to Cartesian space:
 Initial RMS(Int)=    0.0216863550
Transforming coordinates:
 Iter   0:  RMS(Cart)=    0.0096231247 RMS(Int)=    0.0216824238
done
Storing new coordinates                 .... done
The predicted energy change is          ....    -0.000115903
Previously predicted energy change      ....    -0.000351032
Actually observed energy change         ....    -0.000427733
Ratio of predicted to observed change   ....     1.218499370
New trust radius                        ....     0.450000000

                                .--------------------.
          ----------------------|Geometry convergence|-------------------------
          Item                value                   Tolerance       Converged
          ---------------------------------------------------------------------
          Energy change      -0.0004277328            0.0000050000      NO
          RMS gradient        0.0016093864            0.0001000000      NO
          MAX gradient        0.0029857867            0.0003000000      NO
          RMS step            0.0216863550            0.0020000000      NO
          MAX step            0.0451605730            0.0040000000      NO
          ........................................................
          Max(Bonds)      0.0031      Max(Angles)    1.14
          Max(Dihed)        0.00      Max(Improp)    2.59
          ---------------------------------------------------------------------

The optimization has not yet converged - more geometry cycles are needed


    ---------------------------------------------------------------------------
                         Redundant Internal Coordinates
                            (Angstroem and degrees)

        Definition                    Value    dE/dq     Step     New-Value
    ----------------------------------------------------------------------------
     1. B(H   1,N   0)                1.0200 -0.000182  0.0031    1.0231   
     2. B(H   2,N   0)                1.0200 -0.000187  0.0031    1.0231   
     3. B(H   3,N   0)                1.0200 -0.000187  0.0031    1.0231   
     4. A(H   1,N   0,H   3)          107.27  0.001051   -1.11    106.15   
     5. A(H   2,N   0,H   3)          107.26  0.002628   -1.14    106.12   
     6. A(H   1,N   0,H   2)          107.27  0.001051   -1.11    106.15   
     7. I(H   1,H   3,H   2,N   0)     59.96 -0.002986    2.59     62.55   
    ----------------------------------------------------------------------------

Geometry step timings:
Preparation and reading OPT file:      0.000 s (15.435 %)
Internal coordinates            :      0.000 s ( 2.174 %)
B/P matrices and projection     :      0.000 s (18.261 %)
Hessian update/contruction      :      0.000 s (23.696 %)
Making the step                 :      0.000 s ( 7.391 %)
Converting the step to Cartesian:      0.000 s ( 3.043 %)
Storing new data                :      0.000 s ( 3.261 %)
Checking convergence            :      0.000 s ( 2.174 %)
Final printing                  :      0.000 s (24.130 %)
Total time                      :      0.000 s

Time for energy+gradient        :      1.429 s
Time for complete geometry iter :      1.446 s

         *************************************************************
         *                GEOMETRY OPTIMIZATION CYCLE   3            *
         *************************************************************
---------------------------------
CARTESIAN COORDINATES (ANGSTROEM)
---------------------------------
  N      0.000012   -0.000000    0.145556
  H      0.944216    0.000000   -0.248516
  H     -0.472114    0.817672   -0.248520
  H     -0.472114   -0.817672   -0.248520

----------------------------
CARTESIAN COORDINATES (A.U.)
----------------------------
  NO LB      ZA    FRAG     MASS         X           Y           Z
   0 N     7.0000    0    14.007    0.000022   -0.000000    0.275062
   1 H     1.0000    0     1.008    1.784310    0.000000   -0.469628
   2 H     1.0000    0     1.008   -0.892166    1.545177   -0.469635
   3 H     1.0000    0     1.008   -0.892166   -1.545177   -0.469635

--------------------------------
INTERNAL COORDINATES (ANGSTROEM)
--------------------------------
 N      0   0   0     0.000000000000     0.00000000     0.00000000
 H      1   0   0     1.023139664031     0.00000000     0.00000000
 H      1   2   0     1.023126064662   106.11110988     0.00000000
 H      1   2   3     1.023126040050   106.11111684   112.58081120

---------------------------
INTERNAL COORDINATES (A.U.)
---------------------------
 N      0   0   0     0.000000000000     0.00000000     0.00000000
 H      1   0   0     1.933453761771     0.00000000     0.00000000
 H      1   2   0     1.933428062687   106.11110988     0.00000000
 H      1   2   3     1.933428016178   106.11111684   112.58081120

------------------------------------------------------------------------------
                   ___                                                        
                  /   \      - P O W E R E D   B Y -                         
                 /     \                                                     
                 |  |  |   _    _      __       _____    __    __             
                 |  |  |  | |  | |    /  \     |  _  \  |  |  /  |          
                  \  \/   | |  | |   /    \    | | | |  |  | /  /          
                 / \  \   | |__| |  /  /\  \   | |_| |  |  |/  /          
                |  |  |   |  __  | /  /__\  \  |    /   |      \           
                |  |  |   | |  | | |   __   |  |    \   |  |\   \          
                \     /   | |  | | |  |  |  |  | |\  \  |  | \   \       
                 \___/    |_|  |_| |__|  |__|  |_| \__\ |__|  \__/        
                                                                              
                      - O R C A' S   B I G   F R I E N D -                    
                                      &                                       
                       - I N T E G R A L  F E E D E R -                       
                                                                              
 v1 FN, 2020, v2 2021, v3 2022-2024                                           
------------------------------------------------------------------------------


----------------------
SHARK INTEGRAL PACKAGE
----------------------

Number of atoms                             ...      4
Number of basis functions                   ...     29
Number of shells                            ...     15
Maximum angular momentum                    ...      2
Integral batch strategy                     ... SHARK/LIBINT Hybrid
RI-J (if used) integral strategy            ... SPLIT-RIJ (Revised 2003 algorithm where possible)
Printlevel                                  ...      1
Contraction scheme used                     ... SEGMENTED contraction
Prescreening option                         ... SCHWARTZ
   Thresh                                   ... 2.500e-11
   Tcut                                     ... 2.500e-12
   Tpresel                                  ... 2.500e-12 
Coulomb Range Separation                    ... NOT USED
Exchange Range Separation                   ... NOT USED
Multipole approximations                    ... NOT USED
Finite Nucleus Model                        ... NOT USED
CABS basis                                  ... NOT available
Auxiliary Coulomb fitting basis             ... AVAILABLE
   # of basis functions in Aux-J            ...     82
   # of shells in Aux-J                     ...     30
   Maximum angular momentum in Aux-J        ...      4
Auxiliary J/K fitting basis                 ... NOT available
Auxiliary Correlation fitting basis         ... NOT available
Auxiliary 'external' fitting basis          ... NOT available

Checking pre-screening integrals            ... done (  0.0 sec) Dimension = 15
Check shell pair data                       ... done (  0.0 sec)
Shell pair information
Shell pair cut-off parameter TPreSel        ...   2.5e-12
Total number of shell pairs                 ...       120
Shell pairs after pre-screening             ...       120
Total number of primitive shell pairs       ...       400
Primitive shell pairs kept                  ...       388
          la=0 lb=0:     45 shell pairs
          la=1 lb=0:     45 shell pairs
          la=1 lb=1:     15 shell pairs
          la=2 lb=0:      9 shell pairs
          la=2 lb=1:      5 shell pairs
          la=2 lb=2:      1 shell pairs

Calculating one electron integrals          ... done (  0.0 sec)
Calculating RI/J V-Matrix + Cholesky decomp.... done (  0.0 sec)
Calculating Nuclear repulsion               ... done (  0.0 sec) ENN=     11.832224127312 Eh

Diagonalization of the overlap matrix:
Smallest eigenvalue                        ... 2.920e-02
Time for diagonalization                   ...    0.000 sec
Threshold for overlap eigenvalues          ... 1.000e-07
Number of eigenvalues below threshold      ... 0
Time for construction of square roots      ...    0.000 sec
Total time needed                          ...    0.000 sec

-------------------
DFT GRID GENERATION
-------------------

General Integration Accuracy     IntAcc      ... 4.388
Radial Grid Type                 RadialGrid  ... OptM3 with GC (2021)
Angular Grid (max. ang.)         AngularGrid ... 4 (Lebedev-302)
Angular grid pruning method      GridPruning ... 4 (adaptive)
Weight generation scheme         WeightScheme... mBecke (2022)
Basis function cutoff            BFCut       ... 1.0000e-11
Integration weight cutoff        WCut        ... 1.0000e-14
Partially contracted basis set               ... off
Rotationally invariant grid construction     ... off
Angular grids for H and He will be reduced by one unit

Total number of grid points                  ...    16020
Total number of batches                      ...      252
Average number of points per batch           ...       63
Average number of grid points per atom       ...     4005

--------------------
COSX GRID GENERATION
--------------------

GRIDX 1
-------
General Integration Accuracy     IntAcc      ... 3.816
Radial Grid Type                 RadialGrid  ... OptM3 with GC (2021)
Angular Grid (max. ang.)         AngularGrid ... 1 (Lebedev-50)
Angular grid pruning method      GridPruning ... 4 (adaptive)
Weight generation scheme         WeightScheme... mBecke (2022)
Basis function cutoff            BFCut       ... 1.0000e-11
Integration weight cutoff        WCut        ... 1.0000e-14
Partially contracted basis set               ... on
Rotationally invariant grid construction     ... off
Angular grids for H and He will be reduced by one unit

Total number of grid points                  ...     2099
Total number of batches                      ...       19
Average number of points per batch           ...      110
Average number of grid points per atom       ...      525
UseSFitting                                  ... on

GRIDX 2
-------
General Integration Accuracy     IntAcc      ... 4.020
Radial Grid Type                 RadialGrid  ... OptM3 with GC (2021)
Angular Grid (max. ang.)         AngularGrid ... 2 (Lebedev-110)
Angular grid pruning method      GridPruning ... 4 (adaptive)
Weight generation scheme         WeightScheme... mBecke (2022)
Basis function cutoff            BFCut       ... 1.0000e-11
Integration weight cutoff        WCut        ... 1.0000e-14
Partially contracted basis set               ... on
Rotationally invariant grid construction     ... off
Angular grids for H and He will be reduced by one unit

Total number of grid points                  ...     4304
Total number of batches                      ...       36
Average number of points per batch           ...      119
Average number of grid points per atom       ...     1076
UseSFitting                                  ... on

GRIDX 3
-------
General Integration Accuracy     IntAcc      ... 4.338
Radial Grid Type                 RadialGrid  ... OptM3 with GC (2021)
Angular Grid (max. ang.)         AngularGrid ... 3 (Lebedev-194)
Angular grid pruning method      GridPruning ... 4 (adaptive)
Weight generation scheme         WeightScheme... mBecke (2022)
Basis function cutoff            BFCut       ... 1.0000e-11
Integration weight cutoff        WCut        ... 1.0000e-14
Partially contracted basis set               ... on
Rotationally invariant grid construction     ... off
Angular grids for H and He will be reduced by one unit

Total number of grid points                  ...     9469
Total number of batches                      ...       76
Average number of points per batch           ...      124
Average number of grid points per atom       ...     2367
UseSFitting                                  ... on
Initializing property integral containers    ... done (  0.0 sec)

SHARK setup successfully completed in   0.1 seconds

Maximum memory used throughout the entire STARTUP-calculation: 8.7 MB
Occupation numbers will be reassigned to an Aufbau configuration
             **** ENERGY FILE WAS UPDATED (nh3.en.tmp) ****
Finished Guess after   0.0 sec
Maximum memory used throughout the entire GUESS-calculation: 5.5 MB
----------------------------------------D-I-I-S--------------------------------------------
Iteration    Energy (Eh)           Delta-E    RMSDP     MaxDP     DIISErr   Damp  Time(sec)
-------------------------------------------------------------------------------------------
               ***  Starting incremental Fock matrix formation  ***
    1    -56.4729504967188376     0.00e+00  3.67e-04  3.22e-03  4.66e-03  0.700   0.1
    2    -56.4729788060976290    -2.83e-05  3.35e-04  2.97e-03  3.63e-03  0.700   0.1
                               ***Turning on AO-DIIS***
                              *** Initializing SOSCF ***
---------------------------------------S-O-S-C-F--------------------------------------
Iteration    Energy (Eh)           Delta-E    RMSDP     MaxDP     MaxGrad    Time(sec)
--------------------------------------------------------------------------------------
    3    -56.4730000918454493    -2.13e-05  8.81e-04  7.49e-03  2.72e-03     0.1
               *** Restarting incremental Fock matrix formation ***
    4    -56.4730540950014870    -5.40e-05  1.76e-04  1.81e-03  2.65e-04     0.1
    5    -56.4730541408100351    -4.58e-08  5.51e-05  5.04e-04  4.28e-04     0.1
    6    -56.4730548874878338    -7.47e-07  2.67e-06  3.01e-05  1.40e-05     0.1
    7    -56.4730548882889138    -8.01e-10  4.56e-07  3.63e-06  1.90e-06     0.1
                 **** Energy Check signals convergence ****

               *****************************************************
[...]
                        -----------------------------------------
Magnitude (a.u.)       :      0.690686793
Magnitude (Debye)      :      1.755586308



--------------------
Rotational spectrum 
--------------------
 
Rotational constants in cm-1:             9.664610             9.664421             6.338501 
Rotational constants in MHz :        289737.706792        289732.055632        190023.485871 

Dipole components along the rotational axes: 
x,y,z [a.u.] :    -0.000000     0.000012    -0.690687 
x,y,z [Debye]:    -0.000000     0.000029    -1.755586 

 

Dipole moment calculation done in   0.0 sec 


---------------------------------------------------
STATIC POLARIZABILITY TENSOR (Dipole/Dipole)
---------------------------------------------------

Method             : SCF
Type of density    : Electron Density
Type of derivative : Electric Field (Direction=X)
Multiplicity       :   1
Irrep              :   0
Relativity type    : 
Basis              : AO

The raw cartesian tensor (atomic units):
       9.745900696        -0.000000297        -0.000755220  
      -0.000000297         9.749723662        -0.000000025  
      -0.000755220        -0.000000025         6.679364896  
diagonalized tensor: 
       6.679364710         9.745900882         9.749723662  

Orientation: 
       0.000246278         0.999999967        -0.000077767  
       0.000000008         0.000077767         0.999999997  
       0.999999970        -0.000246278         0.000000011  

Isotropic polarizability :   8.72500


Polarizability tensor calculation done in   0.0 sec 

Maximum memory used throughout the entire PROP-calculation: 4.1 MB

----------------------------------------------------------------------------
                           ORCA NUMERICAL FREQUENCIES
----------------------------------------------------------------------------

Number of atoms                ... 4
Central differences            ... used
Number of displacements        ... 24
Numerical increment            ... 5.000e-03 bohr
IR-spectrum generation         ... on
Raman-spectrum generation      ... on
Polarizability calculation     ... 1
Surface Crossing Hessian       ... off

The output will be reduced. Please look at the following files:
SCF program output             ... >nh3.lastscf
Integral program output        ... >nh3.lastint
Gradient program output        ... >nh3.lastgrad
Dipole moment program output   ... >nh3.lastmom

	<< Calculating gradient on displaced geometry   1 (of  24) >>
	<< Calculating gradient on displaced geometry   2 (of  24) >>
	<< Calculating gradient on displaced geometry   3 (of  24) >>
	<< Calculating gradient on displaced geometry   4 (of  24) >>
	<< Calculating gradient on displaced geometry   5 (of  24) >>
	<< Calculating gradient on displaced geometry   6 (of  24) >>
	<< Calculating gradient on displaced geometry   7 (of  24) >>
	<< Calculating gradient on displaced geometry   8 (of  24) >>
	<< Calculating gradient on displaced geometry   9 (of  24) >>
	<< Calculating gradient on displaced geometry  10 (of  24) >>
	<< Calculating gradient on displaced geometry  11 (of  24) >>
	<< Calculating gradient on displaced geometry  12 (of  24) >>
	<< Calculating gradient on displaced geometry  13 (of  24) >>
	<< Calculating gradient on displaced geometry  14 (of  24) >>
	<< Calculating gradient on displaced geometry  15 (of  24) >>
	<< Calculating gradient on displaced geometry  16 (of  24) >>
	<< Calculating gradient on displaced geometry  17 (of  24) >>
	<< Calculating gradient on displaced geometry  18 (of  24) >>
	<< Calculating gradient on displaced geometry  19 (of  24) >>
	<< Calculating gradient on displaced geometry  20 (of  24) >>
	<< Calculating gradient on displaced geometry  21 (of  24) >>
	<< Calculating gradient on displaced geometry  22 (of  24) >>
	<< Calculating gradient on displaced geometry  23 (of  24) >>
	<< Calculating gradient on displaced geometry  24 (of  24) >>

-----------------------
VIBRATIONAL FREQUENCIES
-----------------------

Scaling factor for frequencies =  1.000000000  (already applied!)

Warning: the translational and rotational modes were NOT projected out from the Hessian!
Therefore, the translational and rotational frequencies may be non-zero!


     0:     -36.07 cm**-1  ***imaginary mode***
     1:     -29.56 cm**-1  ***imaginary mode***
     2:      -4.60 cm**-1  ***imaginary mode***
     3:      53.93 cm**-1
     4:      96.61 cm**-1
     5:      97.97 cm**-1
     6:    1062.43 cm**-1
     7:    1655.75 cm**-1
     8:    1656.41 cm**-1
     9:    3438.95 cm**-1
    10:    3558.88 cm**-1
    11:    3561.35 cm**-1


------------
NORMAL MODES
------------

These modes are the Cartesian displacements weighted by the diagonal matrix
M(i,i)=1/sqrt(m[i]) where m[i] is the mass of the displaced atom
Thus, these vectors are normalized but *not* orthogonal

                  0          1          2          3          4          5    
      0       0.304550   0.077068   0.065737   0.005661   0.144672   0.054046
      1       0.071069  -0.336885  -0.001291  -0.018561   0.057355  -0.124594
      2      -0.044441  -0.010333   0.490995  -0.018994  -0.011622  -0.003205
      3       0.465241   0.109077   0.064358  -0.004002  -0.164417  -0.070786
      4       0.086524  -0.452780   0.093360   0.609739  -0.042282   0.044991
      5       0.323746   0.063122   0.489155  -0.040403  -0.718881  -0.289046
      6       0.481137   0.088752  -0.009275  -0.494058  -0.187413   0.040780
      7       0.116369  -0.488426  -0.037614  -0.238904  -0.083754   0.239380
      8      -0.156352  -0.324050   0.505657   0.117336   0.088468   0.732221
      9       0.446713   0.128640   0.141062   0.486033  -0.139756  -0.181604
     10       0.116983  -0.488228  -0.035623  -0.238905  -0.084605   0.239018
     11      -0.297923   0.230672   0.473405  -0.132635   0.594457  -0.453586
                  6          7          8          9         10         11    
      0      -0.000185   0.014262   0.063321  -0.001048  -0.078283  -0.006242
      1       0.000008  -0.063509   0.014298   0.000187   0.006236  -0.078172
      2      -0.113712  -0.000001  -0.000059   0.040684  -0.000490   0.000053
      3       0.221340   0.034132   0.150025   0.554752   0.739033   0.060106
      4      -0.000449   0.737756  -0.166092  -0.000047   0.001701  -0.021768
      5       0.528061   0.057607   0.255924  -0.192040  -0.314788  -0.025524
      6      -0.110475   0.267293  -0.602472  -0.269523   0.201003  -0.319807
      7       0.192258  -0.013295  -0.399824   0.467190  -0.383007   0.528364
      8       0.529640  -0.250746  -0.077728  -0.185150   0.182829  -0.262047
      9      -0.110898  -0.499810  -0.429947  -0.270386   0.148150   0.346579
     10      -0.191880   0.159083   0.367291  -0.469728   0.294557   0.580191
     11       0.529554   0.193343  -0.177665  -0.186472   0.139047   0.286810


-----------
IR SPECTRUM
-----------

 Mode   freq       eps      Int      T**2         TX        TY        TZ
       cm**-1   L/(mol*cm) km/mol    a.u.
----------------------------------------------------------------------------
  3:     53.93   0.000662    3.35  0.003830  (-0.008195  0.061344  0.000357)
  4:     96.61   0.012627   63.81  0.040786  (-0.186583 -0.077281 -0.000271)
  5:     97.97   0.012525   63.30  0.039896  (-0.077218  0.184209 -0.000181)
  6:   1062.43   0.023440  118.46  0.006885  (-0.000055 -0.000066  0.082976)
  7:   1655.75   0.001708    8.63  0.000322  (-0.004193  0.017442 -0.000014)
  8:   1656.41   0.001854    9.37  0.000349  (-0.018214 -0.004187 -0.000015)
  9:   3438.95   0.000064    0.32  0.000006  (-0.000050 -0.000097  0.002413)
 10:   3558.88   0.000001    0.00  0.000000  (-0.000208  0.000057 -0.000032)
 11:   3561.35   0.000000    0.00  0.000000  ( 0.000039 -0.000019  0.000013)

* The epsilon (eps) is given for a Dirac delta lineshape.
** The dipole moment derivative (T) already includes vibrational overlap.

--------------
RAMAN SPECTRUM  
--------------

 Mode    freq (cm**-1)   Activity   Depolarization
-------------------------------------------------------------------
   3:        53.93      0.102811      0.749805
   4:        96.61      2.101458      0.749893
   5:        97.97      2.101226      0.749965
   6:      1062.43      9.289782      0.146221
   7:      1655.75      9.857736      0.749967
   8:      1656.41      9.846322      0.749827
   9:      3438.95    123.348611      0.056580
  10:      3558.88     55.523230      0.749611
  11:      3561.35     55.370520      0.749989

The first frequency considered to be a vibration is 3
The total number of vibrations considered is 9


--------------------------
THERMOCHEMISTRY AT 298.15K
--------------------------

Temperature         ...   298.15 K
Pressure            ...     1.00 atm
Total Mass          ...    17.03 AMU
Quasi RRHO          ...     True
Cut-Off Frequency   ...     1.00 cm^-1

Throughout the following assumptions are being made:
  (1) The electronic state is orbitally nondegenerate
  (2) There are no thermally accessible electronically excited states
  (3) Hindered rotations indicated by low frequency modes are not
      treated as such but are treated as vibrations and this may
      cause some error
  (4) All equations used are the standard statistical mechanics
      equations for an ideal gas
  (5) All vibrations are strictly harmonic


Warning: translational/rotational symmetry breaking observed!
As a result, the following additional assumption(s) will be made:
  (6) All librational modes are treated as vibrational modes

freq.      53.93  E(vib)   ...       0.52 
freq.      96.61  E(vib)   ...       0.47 
freq.      97.97  E(vib)   ...       0.46 
freq.    1062.43  E(vib)   ...       0.02 
freq.    1655.75  E(vib)   ...       0.00 
freq.    1656.41  E(vib)   ...       0.00 
freq.    3438.95  E(vib)   ...       0.00 
freq.    3558.88  E(vib)   ...       0.00 
freq.    3561.35  E(vib)   ...       0.00 

------------
INNER ENERGY
------------

The inner energy is: U= E(el) + E(ZPE) + E(vib) + E(rot) + E(trans)
    E(el)   - is the total energy from the electronic structure calculation
              = E(kin-el) + E(nuc-el) + E(el-el) + E(nuc-nuc)
    E(ZPE)  - the the zero temperature vibrational energy from the frequency calculation
    E(vib)  - the the finite temperature correction to E(ZPE) due to population
              of excited vibrational states
    E(rot)  - is the rotational thermal energy
    E(trans)- is the translational thermal energy

Summary of contributions to the inner energy U:
Electronic energy                ...    -56.47309914 Eh
Zero point energy                ...      0.03458781 Eh      21.70 kcal/mol
Thermal vibrational correction   ...      0.00234036 Eh       1.47 kcal/mol
Thermal rotational correction    ...      0.00000000 Eh       0.00 kcal/mol
Thermal translational correction ...      0.00000000 Eh       0.00 kcal/mol
-----------------------------------------------------------------------
Total thermal energy                    -56.43617098 Eh


Summary of corrections to the electronic energy:
(perhaps to be used in another calculation)
Total thermal correction                  0.00234036 Eh       1.47 kcal/mol
Non-thermal (ZPE) correction              0.03458781 Eh      21.70 kcal/mol
-----------------------------------------------------------------------
Total correction                          0.03692816 Eh      23.17 kcal/mol


--------
ENTHALPY
--------

The enthalpy is H = U + kB*T
                kB is Boltzmann's constant
Total thermal energy              ...    -56.43617098 Eh 
Thermal Enthalpy correction       ...      0.00094421 Eh       0.59 kcal/mol
-----------------------------------------------------------------------
Total Enthalpy                    ...    -56.43522677 Eh


Note: Rotational entropy computed according to Herzberg 
Infrared and Raman Spectra, Chapter V,1, Van Nostrand Reinhold, 1945 
Point Group:  C3v, Symmetry Number:   3  
Rotational constants in cm-1:     9.664610     9.664421     6.338501 

Vibrational entropy computed according to the QRRHO of S. Grimme
Chem.Eur.J. 2012 18 9955 using a reference frequency of 100.0 cm-1


-------
ENTROPY
-------

The entropy contributions are T*S = T*(S(el)+S(vib)+S(rot)+S(trans))
     S(el)   - electronic entropy
     S(vib)  - vibrational entropy
     S(rot)  - rotational entropy
     S(trans)- translational entropy
The entropies will be listed as multiplied by the temperature to get
units of energy

Electronic entropy                ...      0.00000000 Eh      0.00 kcal/mol
Vibrational entropy               ...      0.00465051 Eh      2.92 kcal/mol
Rotational entropy                ...      0.00000000 Eh      0.00 kcal/mol
Translational entropy             ...      0.00000000 Eh      0.00 kcal/mol
-----------------------------------------------------------------------
Final entropy term                ...      0.00465051 Eh      2.92 kcal/mol

In case the symmetry of your molecule has not been determined correctly
or in case you have a reason to use a different symmetry number we print 
out the resulting rotational entropy values for sn=1,12:

 non-linear molecules -----------------------------------
|  sn= 1 | S(rot)=       0.00649719 Eh      4.08 kcal/mol|
|  sn= 2 | S(rot)=       0.00584273 Eh      3.67 kcal/mol|
|  sn= 3 | S(rot)=       0.00545990 Eh      3.43 kcal/mol|
|  sn= 4 | S(rot)=       0.00518828 Eh      3.26 kcal/mol|
|  sn= 5 | S(rot)=       0.00497759 Eh      3.12 kcal/mol|
|  sn= 6 | S(rot)=       0.00480545 Eh      3.02 kcal/mol|
|  sn= 7 | S(rot)=       0.00465990 Eh      2.92 kcal/mol|
|  sn= 8 | S(rot)=       0.00453382 Eh      2.85 kcal/mol|
|  sn= 9 | S(rot)=       0.00442261 Eh      2.78 kcal/mol|
|  sn=10 | S(rot)=       0.00432313 Eh      2.71 kcal/mol|
|  sn=11 | S(rot)=       0.00423314 Eh      2.66 kcal/mol|
|  sn=12 | S(rot)=       0.00415099 Eh      2.60 kcal/mol|
 linear molecules ---------------------------------------
|  Dinfh | S(rot)=       0.00358224 Eh      2.25 kcal/mol|
|  Cinfv | S(rot)=       0.00423670 Eh      2.66 kcal/mol|
 --------------------------------------------------------


-------------------
GIBBS FREE ENERGY
-------------------

The Gibbs free energy is G = H - T*S

Total enthalpy                    ...    -56.43522677 Eh 
Total entropy correction          ...     -0.00465051 Eh     -2.92 kcal/mol
-----------------------------------------------------------------------
Final Gibbs free energy         ...    -56.43987728 Eh

For completeness - the Gibbs free energy minus the electronic energy
G-E(el)                           ...      0.03322186 Eh     20.85 kcal/mol



--------------------------------
SUGGESTED CITATIONS FOR THIS RUN
--------------------------------

Below you find a list of papers that are relevant to this ORCA run
We neither can nor want to force you to cite these papers, but we appreciate if you do
You receive ORCA, which is the product of decades of hard work by many enthusiastic individuals, for free
The only thing we kindly ask in return is that you cite our papers,
We deeply appreciate it, if you show your appreciation for ORCA by not just citing the generic ORCA reference.

Please note that relegating all ORCA citations to the supporting information does *not* help us.
SI sections are not indexed - citations you put there will not count into any citation statistics
But we need these citations in order to attract the funding resources that allow us to do what we are doing

Therefore, if you are a happy ORCA user, please consider citing a few of the papers listed below in the main body of your paper

In addition to the list printed below, the program has created the file nh3.bibtex that contains the list in bibtex format
You can import this file easily into all common literature databanks and citation aid programs


List of essential papers. We consider these as the minimum necessary citations

  1. Neese,F.
     Software update: the ORCA program system, version 5.0
     WIRES Comput. Molec. Sci., 2022 12(1)e1606
     doi.org/10.1002/wcms.1606

List of papers to cite with high priority. The work reported in these papers was absolutely
necessary for this run to complete.
Our perspective: the developers of density functionals and basis sets usually get cited in chemistry papers
Good! But without the algorithms to do something with them, the functionals or basis sets would not do anything.
Hence, in our opinion, the algorithm design and method developments papers are equally worthy of getting cited

  1. Neese,F.
     An improvement of the resolution of the identity approximation for the formation of the Coulomb matrix
     J. Comp. Chem., 2003 24(14)1740-1747
     doi.org/10.1002/jcc.10318
  2. Neese,F.; Wennmohs,F.; Hansen,A.; Becker,U.
     Efficient, approximate and parallel Hartree-Fock and hybrid DFT calculations. A 'chain-of-spheres' algorithm for the Hartree-Fock exchange
     Chem. Phys., 2009 356(1-3)98-109
     doi.org/10.1016/j.chemphys.2008.10.036
  3. Bykov,D.; Petrenko,T.; Izsak,R.; Kossmann,S.; Becker,U.; Valeev,E.; Neese,F.
     Efficient implementation of the analytic second derivatives of Hartree-Fock and hybrid DFT energies: a detailed analysis of different approximations
     Molec. Phys., 2015 113 1961-1977
     doi.org/10.1080/00268976.2015.1025114
  4. Helmich-Paris,B.; de Souza,B.; Neese,F.; Izsák,R.
     An improved chain of spheres for exchange algorithm
     J. Chem. Phys., 2021 155 104109
     doi.org/doi: 10.1063/5.0058766.
  5. Neese,F.
     The SHARK Integral Generation and Digestion System
     J. Comp. Chem., 2022  1-16
     doi.org/10.1002/jcc.26942

List of suggested additional citations. These are papers that are important in the 'surrounding' of 
of this run, or papers that preceded the highly important papers. If you like your results we are grateful for a citation.

  1. Izsak,R.; Neese,F.
     An overlap fitted chain of spheres exchange method
     J. Chem. Phys., 2011 135 144105
     doi.org/10.1063/1.3646921
  2. Izsak,R.; Hansen,A.; Neese,F.
     The resolution of identity and chain of spheres approximations for the LPNO-CCSD singles Fock term
     Molec. Phys., 2012 110 2413-2417
     doi.org/10.1080/00268976.2012.687466
  3. Neese,F.
     The ORCA program system
     WIRES Comput. Molec. Sci., 2012 2(1)73-78
     doi.org/10.1002/wcms.81
  4. Izsak,R.; Neese,F.; Klopper,W.
     Robust fitting techniques in the chain of spheres approximation to the Fock exchange: The role of the complementary space
     J. Chem. Phys., 2013 139 
     doi.org/10.1063/1.4819264
  5. Neese,F.
     Software update: the ORCA program system, version 4.0
     WIRES Comput. Molec. Sci., 2018 8(1)1-6
     doi.org/10.1002/wcms.1327
  6. Neese,F.; Wennmohs,F.; Becker,U.; Riplinger,C.
     The ORCA quantum chemistry program package
     J. Chem. Phys., 2020 152 Art. No. L224108
     doi.org/10.1063/5.0004608

List of optional additional citations

  1. Neese,F.
     Approximate second-order SCF convergence for spin unrestricted wavefunctions
     Chem. Phys. Lett., 2000 325(1-3)93-98
     doi.org/10.1016/s0009-2614(00)00662-x

Timings for individual modules:

Sum of individual times          ...       52.408 sec (=   0.873 min)
Startup calculation              ...        0.959 sec (=   0.016 min)   1.8 %
SCF iterations                   ...        4.313 sec (=   0.072 min)   8.2 %
SCF Response                     ...        0.264 sec (=   0.004 min)   0.5 %
Property calculations            ...        0.046 sec (=   0.001 min)   0.1 %
SCF Gradient evaluation          ...        3.582 sec (=   0.060 min)   6.8 %
Geometry relaxation              ...        0.009 sec (=   0.000 min)   0.0 %
Numerical frequency calculation  ...       43.235 sec (=   0.721 min)  82.5 %
                             ****ORCA TERMINATED NORMALLY****
TOTAL RUN TIME: 0 days 0 hours 0 minutes 51 seconds 492 msec
